/*--------------------------------*- C++ -*----------------------------------*\
  =========                 |
  \\      /  F ield         | OpenFOAM: The Open Source CFD Toolbox
   \\    /   O peration     | Website:  https://openfoam.org
    \\  /    A nd           | Version:  11
     \\/     M anipulation  |
\*---------------------------------------------------------------------------*/
FoamFile
{
    format      ascii;
    class       volScalarField;
    object      T;
}
// ************************************************************************* //

dimensions          [0 0 0 1 0 0 0];

internalField       uniform 800;

boundaryField
{
    inlet
    {
        type            fixedValue;
        value           uniform 473.0;
    }
    outlet
    {
        type            inletOutlet;
        inletValue      uniform 1000.0;
    }
    walls
    {
        type                zeroGradient;
    }
}

// ************************************************************************* //
